TITLE = "SOLUTION_FIELD"
VARIABLES = "x" "y" "T"
ZONE N=9, E=8, F=FEPOINT, ET=TRIANGLE
0	0	1
0.5	0	1
1	0	1
0	0.5	1
0.5	0.5	1
1	0.5	1
0	1	1
0.5	1	1
1	1	1
1	2	4
2	5	4
4	5	7
5	6	8
7	5	8
2	3	5
8	6	9
5	3	6
